8
 energy: -14.464220812496 gnorm: 0.214740151564 xtb: 6.4.1 (6ad4f7c73c88da615e606c4f25866e388696b9b0)
C         0.00000000000000    0.00000000000000    0.00000000000000
C         1.52000000000000    0.00000000000000    0.00000000000000
O         2.10000000000000    1.10000000000000    0.00000000000000
O         2.10000000000000   -1.10000000000000    0.00000000000000
H        -0.39000000000000    1.01000000000000    0.00000000000000
H        -0.39000000000000   -0.50000000000000    0.87000000000000
H        -0.39000000000000   -0.50000000000000   -0.87000000000000
H         3.07000000000000   -1.10000000000000    0.00000000000000
